<?xml version="1.0"?>
<VTKFile type="UnstructuredGrid" version="0.1">
<UnstructuredGrid>
<FieldData>
<DataArray Name="TIME" type="Float64" format="ascii" NumberOfTuples="1">
0.000000e+00
</DataArray>
</FieldData>
<FieldData>
<DataArray Name="CYCLE" type="Int32" format="ascii" NumberOfTuples="1">
0
</DataArray>
</FieldData>
<Piece NumberOfPoints="22365" NumberOfCells="632">
<Points>
<DataArray NumberOfComponents="3" type="Float64" format="ascii">
0.000000e+00 0.000000e+00 0.000000e+00
0.000000e+00 2.500000e-03 0.000000e+00
0.000000e+00 5.000000e-03 0.000000e+00
0.000000e+00 7.500000e-03 0.000000e+00
0.000000e+00 1.000000e-02 0.000000e+00
0.000000e+00 1.250000e-02 0.000000e+00
0.000000e+00 1.500000e-02 0.000000e+00
0.000000e+00 1.750000e-02 0.000000e+00
0.000000e+00 2.000000e-02 0.000000e+00
0.000000e+00 2.250000e-02 0.000000e+00
0.000000e+00 2.500000e-02 0.000000e+00
0.000000e+00 2.750000e-02 0.000000e+00
0.000000e+00 3.000000e-02 0.000000e+00
0.000000e+00 3.250000e-02 0.000000e+00
0.000000e+00 3.500000e-02 0.000000e+00
0.000000e+00 3.750000e-02 0.000000e+00
0.000000e+00 4.000000e-02 0.000000e+00
0.000000e+00 4.250000e-02 0.000000e+00
0.000000e+00 4.500000e-02 0.000000e+00
0.000000e+00 4.750000e-02 0.000000e+00
0.000000e+00 5.000000e-02 0.000000e+00
0.000000e+00 5.250000e-02 0.000000e+00
0.000000e+00 5.500000e-02 0.000000e+00
0.000000e+00 5.750000e-02 0.000000e+00
0.000000e+00 6.000000e-02 0.000000e+00
0.000000e+00 6.250000e-02 0.000000e+00
0.000000e+00 6.500000e-02 0.000000e+00
0.000000e+00 6.750000e-02 0.000000e+00
0.000000e+00 7.000000e-02 0.000000e+00
0.000000e+00 7.250000e-02 0.000000e+00
0.000000e+00 7.500000e-02 0.000000e+00
0.000000e+00 7.750000e-02 0.000000e+00
0.000000e+00 8.000000e-02 0.000000e+00
0.000000e+00 8.250000e-02 0.000000e+00
0.000000e+00 8.500000e-02 0.000000e+00
0.000000e+00 8.750000e-02 0.000000e+00
0.000000e+00 9.000000e-02 0.000000e+00
0.000000e+00 9.250000e-02 0.000000e+00
0.000000e+00 9.500000e-02 0.000000e+00
0.000000e+00 9.750000e-02 0.000000e+00
0.000000e+00 1.000000e-01 0.000000e+00
0.000000e+00 1.025000e-01 0.000000e+00
0.000000e+00 1.050000e-01 0.000000e+00
0.000000e+00 1.075000e-01 0.000000e+00
0.000000e+00 1.100000e-01 0.000000e+00
0.000000e+00 1.125000e-01 0.000000e+00
0.000000e+00 1.150000e-01 0.000000e+00
0.000000e+00 1.175000e-01 0.000000e+00
0.000000e+00 1.200000e-01 0.000000e+00
0.000000e+00 1.225000e-01 0.000000e+00
0.000000e+00 1.250000e-01 0.000000e+00
0.000000e+00 1.275000e-01 0.000000e+00
0.000000e+00 1.300000e-01 0.000000e+00
0.000000e+00 1.325000e-01 0.000000e+00
0.000000e+00 1.350000e-01 0.000000e+00
0.000000e+00 1.375000e-01 0.000000e+00
0.000000e+00 1.400000e-01 0.000000e+00
0.000000e+00 1.425000e-01 0.000000e+00
0.000000e+00 1.450000e-01 0.000000e+00
0.000000e+00 1.475000e-01 0.000000e+00
0.000000e+00 1.500000e-01 0.000000e+00
0.000000e+00 1.525000e-01 0.000000e+00
0.000000e+00 1.550000e-01 0.000000e+00
0.000000e+00 1.575000e-01 0.000000e+00
0.000000e+00 1.600000e-01 0.000000e+00
0.000000e+00 1.625000e-01 0.000000e+00
0.000000e+00 1.650000e-01 0.000000e+00
0.000000e+00 1.675000e-01 0.000000e+00
0.000000e+00 1.700000e-01 0.000000e+00
0.000000e+00 1.725000e-01 0.000000e+00
0.000000e+00 1.750000e-01 0.000000e+00
0.000000e+00 1.775000e-01 0.000000e+00
0.000000e+00 1.800000e-01 0.000000e+00
0.000000e+00 1.825000e-01 0.000000e+00
0.000000e+00 1.850000e-01 0.000000e+00
0.000000e+00 1.875000e-01 0.000000e+00
0.000000e+00 1.900000e-01 0.000000e+00
0.000000e+00 1.925000e-01 0.000000e+00
0.000000e+00 1.950000e-01 0.000000e+00
0.000000e+00 1.975000e-01 0.000000e+00
0.000000e+00 2.000000e-01 0.000000e+00
0.000000e+00 2.025000e-01 0.000000e+00
0.000000e+00 2.050000e-01 0.000000e+00
0.000000e+00 2.075000e-01 0.000000e+00
0.000000e+00 2.100000e-01 0.000000e+00
0.000000e+00 2.125000e-01 0.000000e+00
0.000000e+00 2.150000e-01 0.000000e+00
0.000000e+00 2.175000e-01 0.000000e+00
0.000000e+00 2.200000e-01 0.000000e+00
0.000000e+00 2.225000e-01 0.000000e+00
0.000000e+00 2.250000e-01 0.000000e+00
0.000000e+00 2.275000e-01 0.000000e+00
0.000000e+00 2.300000e-01 0.000000e+00
0.000000e+00 2.325000e-01 0.000000e+00
0.000000e+00 2.350000e-01 0.000000e+00
0.000000e+00 2.375000e-01 0.000000e+00
0.000000e+00 2.400000e-01 0.000000e+00
0.000000e+00 2.425000e-01 0.000000e+00
0.000000e+00 2.450000e-01 0.000000e+00
0.000000e+00 2.475000e-01 0.000000e+00
0.000000e+00 2.500000e-01 0.000000e+00
0.000000e+00 2.525000e-01 0.000000e+00
0.000000e+00 2.550000e-01 0.000000e+00
0.000000e+00 2.575000e-01 0.000000e+00
0.000000e+00 2.600000e-01 0.000000e+00
2.500000e-03 0.000000e+00 0.000000e+00
2.500000e-03 2.500000e-03 0.000000e+00
2.500000e-03 5.000000e-03 0.000000e+00
2.500000e-03 7.500000e-03 0.000000e+00
2.500000e-03 1.000000e-02 0.000000e+00
2.500000e-03 1.250000e-02 0.000000e+00
2.500000e-03 1.500000e-02 0.000000e+00
2.500000e-03 1.750000e-02 0.000000e+00
2.500000e-03 2.000000e-02 0.000000e+00
2.500000e-03 2.250000e-02 0.000000e+00
2.500000e-03 2.500000e-02 0.000000e+00
2.500000e-03 2.750000e-02 0.000000e+00
2.500000e-03 3.000000e-02 0.000000e+00
2.500000e-03 3.250000e-02 0.000000e+00
2.500000e-03 3.500000e-02 0.000000e+00
2.500000e-03 3.750000e-02 0.000000e+00
2.500000e-03 4.000000e-02 0.000000e+00
2.500000e-03 4.250000e-02 0.000000e+00
2.500000e-03 4.500000e-02 0.000000e+00
2.500000e-03 4.750000e-02 0.000000e+00
2.500000e-03 5.000000e-02 0.000000e+00
2.500000e-03 5.250000e-02 0.000000e+00
2.500000e-03 5.500000e-02 0.000000e+00
2.500000e-03 5.750000e-02 0.000000e+00
2.500000e-03 6.000000e-02 0.000000e+00
2.500000e-03 6.250000e-02 0.000000e+00
2.500000e-03 6.500000e-02 0.000000e+00
2.500000e-03 6.750000e-02 0.000000e+00
2.500000e-03 7.000000e-02 0.000000e+00
2.500000e-03 7.250000e-02 0.000000e+00
2.500000e-03 7.500000e-02 0.000000e+00
2.500000e-03 7.750000e-02 0.000000e+00
2.500000e-03 8.000000e-02 0.000000e+00
2.500000e-03 8.250000e-02 0.000000e+00
2.500000e-03 8.500000e-02 0.000000e+00
2.500000e-03 8.750000e-02 0.000000e+00
2.500000e-03 9.000000e-02 0.000000e+00
2.500000e-03 9.250000e-02 0.000000e+00
2.500000e-03 9.500000e-02 0.000000e+00
2.500000e-03 9.750000e-02 0.000000e+00
2.500000e-03 1.000000e-01 0.000000e+00
2.500000e-03 1.025000e-01 0.000000e+00
2.500000e-03 1.050000e-01 0.000000e+00
2.500000e-03 1.075000e-01 0.000000e+00
2.500000e-03 1.100000e-01 0.000000e+00
2.500000e-03 1.125000e-01 0.000000e+00
2.500000e-03 1.150000e-01 0.000000e+00
2.500000e-03 1.175000e-01 0.000000e+00
2.500000e-03 1.200000e-01 0.000000e+00
2.500000e-03 1.225000e-01 0.000000e+00
2.500000e-03 1.250000e-01 0.000000e+00
2.500000e-03 1.275000e-01 0.000000e+00
2.500000e-03 1.300000e-01 0.000000e+00
2.500000e-03 1.325000e-01 0.000000e+00
2.500000e-03 1.350000e-01 0.000000e+00
2.500000e-03 1.375000e-01 0.000000e+00
2.500000e-03 1.400000e-01 0.000000e+00
2.500000e-03 1.425000e-01 0.000000e+00
2.500000e-03 1.450000e-01 0.000000e+00
2.500000e-03 1.475000e-01 0.000000e+00
2.500000e-03 1.500000e-01 0.000000e+00
2.500000e-03 1.525000e-01 0.000000e+00
2.500000e-03 1.550000e-01 0.000000e+00
2.500000e-03 1.575000e-01 0.000000e+00
2.500000e-03 1.600000e-01 0.000000e+00
2.500000e-03 1.625000e-01 0.000000e+00
2.500000e-03 1.650000e-01 0.000000e+00
2.500000e-03 1.675000e-01 0.000000e+00
2.500000e-03 1.700000e-01 0.000000e+00
2.500000e-03 1.725000e-01 0.000000e+00
2.500000e-03 1.750000e-01 0.000000e+00
2.500000e-03 1.775000e-01 0.000000e+00
2.500000e-03 1.800000e-01 0.000000e+00
2.500000e-03 1.825000e-01 0.000000e+00
2.500000e-03 1.850000e-01 0.000000e+00
2.500000e-03 1.875000e-01 0.000000e+00
2.500000e-03 1.900000e-01 0.000000e+00
2.500000e-03 1.925000e-01 0.000000e+00
2.500000e-03 1.950000e-01 0.000000e+00
2.500000e-03 1.975000e-01 0.000000e+00
2.500000e-03 2.000000e-01 0.000000e+00
2.500000e-03 2.025000e-01 0.000000e+00
2.500000e-03 2.050000e-01 0.000000e+00
2.500000e-03 2.075000e-01 0.000000e+00
2.500000e-03 2.100000e-01 0.000000e+00
2.500000e-03 2.125000e-01 0.000000e+00
2.500000e-03 2.150000e-01 0.000000e+00
2.500000e-03 2.175000e-01 0.000000e+00
2.500000e-03 2.200000e-01 0.000000e+00
2.500000e-03 2.225000e-01 0.000000e+00
2.500000e-03 2.250000e-01 0.000000e+00
2.500000e-03 2.275000e-01 0.000000e+00
2.500000e-03 2.300000e-01 0.000000e+00
2.500000e-03 2.325000e-01 0.000000e+00
2.500000e-03 2.350000e-01 0.000000e+00
2.500000e-03 2.375000e-01 0.000000e+00
2.500000e-03 2.400000e-01 0.000000e+00
2.500000e-03 2.425000e-01 0.000000e+00
2.500000e-03 2.450000e-01 0.000000e+00
2.500000e-03 2.475000e-01 0.000000e+00
2.500000e-03 2.500000e-01 0.000000e+00
2.500000e-03 2.525000e-01 0.000000e+00
2.500000e-03 2.550000e-01 0.000000e+00
2.500000e-03 2.575000e-01 0.000000e+00
2.500000e-03 2.600000e-01 0.000000e+00
5.000000e-03 0.000000e+00 0.000000e+00
5.000000e-03 2.500000e-03 0.000000e+00
5.000000e-03 5.000000e-03 0.000000e+00
5.000000e-03 7.500000e-03 0.000000e+00
5.000000e-03 1.000000e-02 0.000000e+00
5.000000e-03 1.250000e-02 0.000000e+00
5.000000e-03 1.500000e-02 0.000000e+00
5.000000e-03 1.750000e-02 0.000000e+00
5.000000e-03 2.000000e-02 0.000000e+00
5.000000e-03 2.250000e-02 0.000000e+00
5.000000e-03 2.500000e-02 0.000000e+00
5.000000e-03 2.750000e-02 0.000000e+00
5.000000e-03 3.000000e-02 0.000000e+00
5.000000e-03 3.250000e-02 0.000000e+00
5.000000e-03 3.500000e-02 0.000000e+00
5.000000e-03 3.750000e-02 0.000000e+00
5.000000e-03 4.000000e-02 0.000000e+00
5.000000e-03 4.250000e-02 0.000000e+00
5.000000e-03 4.500000e-02 0.000000e+00
5.000000e-03 4.750000e-02 0.000000e+00
5.000000e-03 5.000000e-02 0.000000e+00
5.000000e-03 5.250000e-02 0.000000e+00
5.000000e-03 5.500000e-02 0.000000e+00
5.000000e-03 5.750000e-02 0.000000e+00
5.000000e-03 6.000000e-02 0.000000e+00
5.000000e-03 6.250000e-02 0.000000e+00
5.000000e-03 6.500000e-02 0.000000e+00
5.000000e-03 6.750000e-02 0.000000e+00
5.000000e-03 7.000000e-02 0.000000e+00
5.000000e-03 7.250000e-02 0.000000e+00
5.000000e-03 7.500000e-02 0.000000e+00
5.000000e-03 7.750000e-02 0.000000e+00
5.000000e-03 8.000000e-02 0.000000e+00
5.000000e-03 8.250000e-02 0.000000e+00
[...]
<CellData>
<DataArray Name="flux_surface_norm" type="Float64" NumberOfComponents="3" format="ascii">
0.000000e+00 0.000000e+00 0.000000e+00
0.000000e+00 0.000000e+00 0.000000e+00
0.000000e+00 0.000000e+00 0.000000e+00
0.000000e+00 0.000000e+00 0.000000e+00
0.000000e+00 0.000000e+00 0.000000e+00
0.000000e+00 0.000000e+00 0.000000e+00
0.000000e+00 0.000000e+00 0.000000e+00
0.000000e+00 0.000000e+00 0.000000e+00
0.000000e+00 0.000000e+00 0.000000e+00
0.000000e+00 0.000000e+00 0.000000e+00
0.000000e+00 0.000000e+00 0.000000e+00
0.000000e+00 0.000000e+00 0.000000e+00
0.000000e+00 0.000000e+00 0.000000e+00
0.000000e+00 0.000000e+00 0.000000e+00
0.000000e+00 0.000000e+00 0.000000e+00
0.000000e+00 0.000000e+00 0.000000e+00
0.000000e+00 0.000000e+00 0.000000e+00
0.000000e+00 0.000000e+00 0.000000e+00
0.000000e+00 0.000000e+00 0.000000e+00
0.000000e+00 0.000000e+00 0.000000e+00
0.000000e+00 0.000000e+00 0.000000e+00
0.000000e+00 0.000000e+00 0.000000e+00
0.000000e+00 0.000000e+00 0.000000e+00
0.000000e+00 0.000000e+00 0.000000e+00
0.000000e+00 0.000000e+00 0.000000e+00
0.000000e+00 0.000000e+00 0.000000e+00
0.000000e+00 0.000000e+00 0.000000e+00
0.000000e+00 0.000000e+00 0.000000e+00
0.000000e+00 0.000000e+00 0.000000e+00
0.000000e+00 0.000000e+00 0.000000e+00
0.000000e+00 0.000000e+00 0.000000e+00
0.000000e+00 0.000000e+00 0.000000e+00
0.000000e+00 0.000000e+00 0.000000e+00
0.000000e+00 0.000000e+00 0.000000e+00
0.000000e+00 0.000000e+00 0.000000e+00
0.000000e+00 0.000000e+00 0.000000e+00
0.000000e+00 0.000000e+00 0.000000e+00
0.000000e+00 0.000000e+00 0.000000e+00
0.000000e+00 0.000000e+00 0.000000e+00
0.000000e+00 0.000000e+00 0.000000e+00
0.000000e+00 0.000000e+00 0.000000e+00
0.000000e+00 0.000000e+00 0.000000e+00
0.000000e+00 0.000000e+00 0.000000e+00
0.000000e+00 0.000000e+00 0.000000e+00
0.000000e+00 0.000000e+00 0.000000e+00
0.000000e+00 0.000000e+00 0.000000e+00
0.000000e+00 0.000000e+00 0.000000e+00
0.000000e+00 0.000000e+00 0.000000e+00
0.000000e+00 0.000000e+00 0.000000e+00
0.000000e+00 0.000000e+00 0.000000e+00
0.000000e+00 0.000000e+00 0.000000e+00
0.000000e+00 0.000000e+00 0.000000e+00
0.000000e+00 0.000000e+00 0.000000e+00
0.000000e+00 0.000000e+00 0.000000e+00
0.000000e+00 0.000000e+00 0.000000e+00
0.000000e+00 0.000000e+00 0.000000e+00
0.000000e+00 0.000000e+00 0.000000e+00
0.000000e+00 0.000000e+00 0.000000e+00
0.000000e+00 0.000000e+00 0.000000e+00
0.000000e+00 0.000000e+00 0.000000e+00
0.000000e+00 0.000000e+00 0.000000e+00
0.000000e+00 0.000000e+00 0.000000e+00
0.000000e+00 0.000000e+00 0.000000e+00
0.000000e+00 0.000000e+00 0.000000e+00
0.000000e+00 0.000000e+00 0.000000e+00
0.000000e+00 0.000000e+00 0.000000e+00
0.000000e+00 0.000000e+00 0.000000e+00
0.000000e+00 0.000000e+00 0.000000e+00
0.000000e+00 0.000000e+00 0.000000e+00
0.000000e+00 0.000000e+00 0.000000e+00
0.000000e+00 0.000000e+00 0.000000e+00
0.000000e+00 0.000000e+00 0.000000e+00
0.000000e+00 0.000000e+00 0.000000e+00
0.000000e+00 0.000000e+00 0.000000e+00
0.000000e+00 0.000000e+00 0.000000e+00
0.000000e+00 0.000000e+00 0.000000e+00
0.000000e+00 0.000000e+00 0.000000e+00
0.000000e+00 0.000000e+00 0.000000e+00
0.000000e+00 0.000000e+00 0.000000e+00
0.000000e+00 0.000000e+00 0.000000e+00
0.000000e+00 0.000000e+00 0.000000e+00
0.000000e+00 0.000000e+00 0.000000e+00
0.000000e+00 0.000000e+00 0.000000e+00
0.000000e+00 0.000000e+00 0.000000e+00
0.000000e+00 0.000000e+00 0.000000e+00
0.000000e+00 0.000000e+00 0.000000e+00
0.000000e+00 0.000000e+00 0.000000e+00
0.000000e+00 0.000000e+00 0.000000e+00
0.000000e+00 0.000000e+00 0.000000e+00
0.000000e+00 0.000000e+00 0.000000e+00
0.000000e+00 0.000000e+00 0.000000e+00
0.000000e+00 0.000000e+00 0.000000e+00
0.000000e+00 0.000000e+00 0.000000e+00
0.000000e+00 0.000000e+00 0.000000e+00
0.000000e+00 0.000000e+00 0.000000e+00
0.000000e+00 0.000000e+00 0.000000e+00
0.000000e+00 0.000000e+00 0.000000e+00
0.000000e+00 0.000000e+00 0.000000e+00
0.000000e+00 0.000000e+00 0.000000e+00
0.000000e+00 0.000000e+00 0.000000e+00
0.000000e+00 0.000000e+00 0.000000e+00
0.000000e+00 0.000000e+00 0.000000e+00
0.000000e+00 0.000000e+00 0.000000e+00
0.000000e+00 0.000000e+00 0.000000e+00
2.007147e+03 0.000000e+00 0.000000e+00
0.000000e+00 1.075360e+03 0.000000e+00
0.000000e+00 0.000000e+00 0.000000e+00
0.000000e+00 -3.085101e+03 0.000000e+00
0.000000e+00 0.000000e+00 0.000000e+00
0.000000e+00 -3.436364e+02 0.000000e+00
0.000000e+00 0.000000e+00 0.000000e+00
0.000000e+00 -1.274225e+01 0.000000e+00
0.000000e+00 0.000000e+00 0.000000e+00
0.000000e+00 1.316786e+02 0.000000e+00
0.000000e+00 0.000000e+00 0.000000e+00
0.000000e+00 1.724748e+02 0.000000e+00
0.000000e+00 0.000000e+00 0.000000e+00
0.000000e+00 1.808886e+02 0.000000e+00
0.000000e+00 0.000000e+00 0.000000e+00
0.000000e+00 1.766307e+02 0.000000e+00
0.000000e+00 0.000000e+00 0.000000e+00
0.000000e+00 1.677903e+02 0.000000e+00
0.000000e+00 0.000000e+00 0.000000e+00
0.000000e+00 1.574666e+02 0.000000e+00
0.000000e+00 0.000000e+00 0.000000e+00
0.000000e+00 1.471226e+02 0.000000e+00
0.000000e+00 0.000000e+00 0.000000e+00
0.000000e+00 1.373440e+02 0.000000e+00
0.000000e+00 0.000000e+00 0.000000e+00
0.000000e+00 1.282165e+02 0.000000e+00
0.000000e+00 0.000000e+00 0.000000e+00
0.000000e+00 1.198269e+02 0.000000e+00
0.000000e+00 0.000000e+00 0.000000e+00
0.000000e+00 1.122474e+02 0.000000e+00
0.000000e+00 0.000000e+00 0.000000e+00
0.000000e+00 1.053282e+02 0.000000e+00
0.000000e+00 0.000000e+00 0.000000e+00
0.000000e+00 9.898518e+01 0.000000e+00
0.000000e+00 0.000000e+00 0.000000e+00
0.000000e+00 9.322399e+01 0.000000e+00
0.000000e+00 0.000000e+00 0.000000e+00
0.000000e+00 8.793394e+01 0.000000e+00
0.000000e+00 0.000000e+00 0.000000e+00
0.000000e+00 8.311086e+01 0.000000e+00
0.000000e+00 0.000000e+00 0.000000e+00
0.000000e+00 7.868604e+01 0.000000e+00
0.000000e+00 0.000000e+00 0.000000e+00
0.000000e+00 7.457910e+01 0.000000e+00
0.000000e+00 0.000000e+00 0.000000e+00
0.000000e+00 7.080382e+01 0.000000e+00
0.000000e+00 0.000000e+00 0.000000e+00
0.000000e+00 6.731583e+01 0.000000e+00
0.000000e+00 0.000000e+00 0.000000e+00
0.000000e+00 6.405795e+01 0.000000e+00
0.000000e+00 0.000000e+00 0.000000e+00
0.000000e+00 6.104755e+01 0.000000e+00
0.000000e+00 0.000000e+00 0.000000e+00
0.000000e+00 5.825643e+01 0.000000e+00
0.000000e+00 0.000000e+00 0.000000e+00
0.000000e+00 5.563639e+01 0.000000e+00
0.000000e+00 0.000000e+00 0.000000e+00
0.000000e+00 5.318941e+01 0.000000e+00
0.000000e+00 0.000000e+00 0.000000e+00
0.000000e+00 5.089813e+01 0.000000e+00
0.000000e+00 0.000000e+00 0.000000e+00
0.000000e+00 4.875530e+01 0.000000e+00
0.000000e+00 0.000000e+00 0.000000e+00
0.000000e+00 4.673131e+01 0.000000e+00
0.000000e+00 0.000000e+00 0.000000e+00
0.000000e+00 4.483099e+01 0.000000e+00
0.000000e+00 0.000000e+00 0.000000e+00
0.000000e+00 4.304218e+01 0.000000e+00
0.000000e+00 0.000000e+00 0.000000e+00
0.000000e+00 4.134943e+01 0.000000e+00
0.000000e+00 0.000000e+00 0.000000e+00
0.000000e+00 3.976199e+01 0.000000e+00
0.000000e+00 0.000000e+00 0.000000e+00
0.000000e+00 3.825397e+01 0.000000e+00
0.000000e+00 0.000000e+00 0.000000e+00
0.000000e+00 3.684248e+01 0.000000e+00
0.000000e+00 0.000000e+00 0.000000e+00
0.000000e+00 3.548841e+01 0.000000e+00
0.000000e+00 0.000000e+00 0.000000e+00
0.000000e+00 3.419556e+01 0.000000e+00
0.000000e+00 0.000000e+00 0.000000e+00
0.000000e+00 3.298971e+01 0.000000e+00
0.000000e+00 0.000000e+00 0.000000e+00
0.000000e+00 3.181515e+01 0.000000e+00
0.000000e+00 0.000000e+00 0.000000e+00
0.000000e+00 3.072528e+01 0.000000e+00
0.000000e+00 0.000000e+00 0.000000e+00
0.000000e+00 2.969456e+01 0.000000e+00
0.000000e+00 0.000000e+00 0.000000e+00
0.000000e+00 2.867208e+01 0.000000e+00
0.000000e+00 0.000000e+00 0.000000e+00
0.000000e+00 2.773725e+01 0.000000e+00
0.000000e+00 0.000000e+00 0.000000e+00
0.000000e+00 2.682733e+01 0.000000e+00
0.000000e+00 0.000000e+00 0.000000e+00
0.000000e+00 2.593126e+01 0.000000e+00
0.000000e+00 0.000000e+00 0.000000e+00
0.000000e+00 2.512342e+01 0.000000e+00
0.000000e+00 0.000000e+00 0.000000e+00
0.000000e+00 2.431877e+01 0.000000e+00
0.000000e+00 0.000000e+00 0.000000e+00
0.000000e+00 2.354232e+01 0.000000e+00
0.000000e+00 0.000000e+00 0.000000e+00
0.000000e+00 2.283637e+01 0.000000e+00
0.000000e+00 0.000000e+00 0.000000e+00
0.000000e+00 2.211884e+01 0.000000e+00
0.000000e+00 0.000000e+00 0.000000e+00
0.000000e+00 2.144431e+01 0.000000e+00
0.000000e+00 0.000000e+00 0.000000e+00
0.000000e+00 2.082174e+01 0.000000e+00
0.000000e+00 0.000000e+00 0.000000e+00
0.000000e+00 2.017899e+01 0.000000e+00
0.000000e+00 0.000000e+00 0.000000e+00
0.000000e+00 1.958571e+01 0.000000e+00
0.000000e+00 0.000000e+00 0.000000e+00
0.000000e+00 1.903699e+01 0.000000e+00
0.000000e+00 0.000000e+00 0.000000e+00
0.000000e+00 1.846056e+01 0.000000e+00
0.000000e+00 0.000000e+00 0.000000e+00
0.000000e+00 1.792586e+01 0.000000e+00
0.000000e+00 0.000000e+00 0.000000e+00
0.000000e+00 1.743627e+01 0.000000e+00
0.000000e+00 0.000000e+00 0.000000e+00
0.000000e+00 1.692411e+01 0.000000e+00
0.000000e+00 0.000000e+00 0.000000e+00
0.000000e+00 1.644706e+01 0.000000e+00
0.000000e+00 0.000000e+00 0.000000e+00
0.000000e+00 1.601644e+01 0.000000e+00
0.000000e+00 0.000000e+00 0.000000e+00
0.000000e+00 1.556376e+01 0.000000e+00
0.000000e+00 0.000000e+00 0.000000e+00
0.000000e+00 1.512398e+01 0.000000e+00
0.000000e+00 0.000000e+00 0.000000e+00
0.000000e+00 1.473135e+01 0.000000e+00
0.000000e+00 0.000000e+00 0.000000e+00
0.000000e+00 1.432775e+01 0.000000e+00
0.000000e+00 0.000000e+00 0.000000e+00
0.000000e+00 1.391581e+01 0.000000e+00
0.000000e+00 0.000000e+00 0.000000e+00
0.000000e+00 1.354854e+01 0.000000e+00
0.000000e+00 0.000000e+00 0.000000e+00
0.000000e+00 1.319466e+01 0.000000e+00
0.000000e+00 0.000000e+00 0.000000e+00
0.000000e+00 1.282729e+01 0.000000e+00
0.000000e+00 0.000000e+00 0.000000e+00
0.000000e+00 1.248784e+01 0.000000e+00
0.000000e+00 0.000000e+00 0.000000e+00
0.000000e+00 1.217842e+01 0.000000e+00
0.000000e+00 0.000000e+00 0.000000e+00
0.000000e+00 1.185456e+01 0.000000e+00
0.000000e+00 0.000000e+00 0.000000e+00
0.000000e+00 1.152654e+01 0.000000e+00
0.000000e+00 0.000000e+00 0.000000e+00
0.000000e+00 1.122636e+01 0.000000e+00
0.000000e+00 0.000000e+00 0.000000e+00
0.000000e+00 1.093581e+01 0.000000e+00
0.000000e+00 0.000000e+00 0.000000e+00
0.000000e+00 1.063806e+01 0.000000e+00
0.000000e+00 0.000000e+00 0.000000e+00
0.000000e+00 1.035425e+01 0.000000e+00
0.000000e+00 0.000000e+00 0.000000e+00
0.000000e+00 1.009440e+01 0.000000e+00
0.000000e+00 0.000000e+00 0.000000e+00
0.000000e+00 9.839746e+00 0.000000e+00
0.000000e+00 0.000000e+00 0.000000e+00
0.000000e+00 9.578945e+00 0.000000e+00
0.000000e+00 0.000000e+00 0.000000e+00
0.000000e+00 9.331259e+00 0.000000e+00
0.000000e+00 0.000000e+00 0.000000e+00
0.000000e+00 9.104530e+00 0.000000e+00
0.000000e+00 0.000000e+00 0.000000e+00
0.000000e+00 8.877909e+00 0.000000e+00
0.000000e+00 0.000000e+00 0.000000e+00
0.000000e+00 8.644224e+00 0.000000e+00
0.000000e+00 0.000000e+00 0.000000e+00
0.000000e+00 8.416104e+00 0.000000e+00
0.000000e+00 0.000000e+00 0.000000e+00
0.000000e+00 8.204789e+00 0.000000e+00
0.000000e+00 0.000000e+00 0.000000e+00
0.000000e+00 8.008552e+00 0.000000e+00
0.000000e+00 0.000000e+00 0.000000e+00
0.000000e+00 7.811727e+00 0.000000e+00
0.000000e+00 0.000000e+00 0.000000e+00
0.000000e+00 7.608817e+00 0.000000e+00
0.000000e+00 0.000000e+00 0.000000e+00
0.000000e+00 7.408306e+00 0.000000e+00
0.000000e+00 0.000000e+00 0.000000e+00
0.000000e+00 7.219597e+00 0.000000e+00
0.000000e+00 0.000000e+00 0.000000e+00
0.000000e+00 7.042619e+00 0.000000e+00
0.000000e+00 0.000000e+00 0.000000e+00
0.000000e+00 6.867579e+00 0.000000e+00
0.000000e+00 0.000000e+00 0.000000e+00
0.000000e+00 6.692996e+00 0.000000e+00
0.000000e+00 0.000000e+00 0.000000e+00
0.000000e+00 6.514080e+00 0.000000e+00
0.000000e+00 0.000000e+00 0.000000e+00
0.000000e+00 6.333130e+00 0.000000e+00
0.000000e+00 0.000000e+00 0.000000e+00
0.000000e+00 6.161398e+00 0.000000e+00
0.000000e+00 0.000000e+00 0.000000e+00
0.000000e+00 5.998219e+00 0.000000e+00
0.000000e+00 0.000000e+00 0.000000e+00
0.000000e+00 5.840917e+00 0.000000e+00
0.000000e+00 0.000000e+00 0.000000e+00
0.000000e+00 5.692286e+00 0.000000e+00
0.000000e+00 0.000000e+00 0.000000e+00
0.000000e+00 5.542560e+00 0.000000e+00
0.000000e+00 0.000000e+00 0.000000e+00
0.000000e+00 5.395373e+00 0.000000e+00
0.000000e+00 0.000000e+00 0.000000e+00
0.000000e+00 5.256330e+00 0.000000e+00
0.000000e+00 0.000000e+00 0.000000e+00
0.000000e+00 5.113501e+00 0.000000e+00
0.000000e+00 0.000000e+00 0.000000e+00
0.000000e+00 4.974943e+00 0.000000e+00
0.000000e+00 0.000000e+00 0.000000e+00
0.000000e+00 4.844146e+00 0.000000e+00
0.000000e+00 0.000000e+00 0.000000e+00
0.000000e+00 4.709855e+00 0.000000e+00
0.000000e+00 0.000000e+00 0.000000e+00
0.000000e+00 4.581064e+00 0.000000e+00
0.000000e+00 0.000000e+00 0.000000e+00
0.000000e+00 4.459035e+00 0.000000e+00
0.000000e+00 0.000000e+00 0.000000e+00
0.000000e+00 4.336531e+00 0.000000e+00
0.000000e+00 0.000000e+00 0.000000e+00
0.000000e+00 4.224288e+00 0.000000e+00
0.000000e+00 0.000000e+00 0.000000e+00
0.000000e+00 4.115035e+00 0.000000e+00
0.000000e+00 0.000000e+00 0.000000e+00
0.000000e+00 3.997396e+00 0.000000e+00
0.000000e+00 0.000000e+00 0.000000e+00
0.000000e+00 3.885339e+00 0.000000e+00
0.000000e+00 0.000000e+00 0.000000e+00
0.000000e+00 3.778942e+00 0.000000e+00
0.000000e+00 0.000000e+00 0.000000e+00
0.000000e+00 3.672081e+00 0.000000e+00
0.000000e+00 0.000000e+00 0.000000e+00
0.000000e+00 3.570181e+00 0.000000e+00
0.000000e+00 0.000000e+00 0.000000e+00
0.000000e+00 3.466160e+00 0.000000e+00
0.000000e+00 0.000000e+00 0.000000e+00
0.000000e+00 3.358026e+00 0.000000e+00
0.000000e+00 0.000000e+00 0.000000e+00
0.000000e+00 3.256534e+00 0.000000e+00
0.000000e+00 0.000000e+00 0.000000e+00
0.000000e+00 3.157948e+00 0.000000e+00
0.000000e+00 0.000000e+00 0.000000e+00
0.000000e+00 3.058995e+00 0.000000e+00
0.000000e+00 0.000000e+00 0.000000e+00
0.000000e+00 2.968282e+00 0.000000e+00
0.000000e+00 0.000000e+00 0.000000e+00
0.000000e+00 2.879078e+00 0.000000e+00
0.000000e+00 0.000000e+00 0.000000e+00
0.000000e+00 2.784570e+00 0.000000e+00
0.000000e+00 0.000000e+00 0.000000e+00
0.000000e+00 2.695439e+00 0.000000e+00
0.000000e+00 0.000000e+00 0.000000e+00
0.000000e+00 2.608506e+00 0.000000e+00
0.000000e+00 0.000000e+00 0.000000e+00
0.000000e+00 2.520720e+00 0.000000e+00
0.000000e+00 0.000000e+00 0.000000e+00
0.000000e+00 2.442231e+00 0.000000e+00
0.000000e+00 0.000000e+00 0.000000e+00
0.000000e+00 2.365863e+00 0.000000e+00
0.000000e+00 0.000000e+00 0.000000e+00
0.000000e+00 2.284366e+00 0.000000e+00
0.000000e+00 0.000000e+00 0.000000e+00
0.000000e+00 2.211609e+00 0.000000e+00
0.000000e+00 0.000000e+00 0.000000e+00
0.000000e+00 2.147406e+00 0.000000e+00
0.000000e+00 0.000000e+00 0.000000e+00
0.000000e+00 2.079885e+00 0.000000e+00
0.000000e+00 0.000000e+00 0.000000e+00
0.000000e+00 2.013044e+00 0.000000e+00
0.000000e+00 0.000000e+00 0.000000e+00
0.000000e+00 1.944343e+00 0.000000e+00
0.000000e+00 0.000000e+00 0.000000e+00
0.000000e+00 1.871199e+00 0.000000e+00
0.000000e+00 0.000000e+00 0.000000e+00
0.000000e+00 1.802912e+00 0.000000e+00
0.000000e+00 0.000000e+00 0.000000e+00
0.000000e+00 1.737780e+00 0.000000e+00
0.000000e+00 0.000000e+00 0.000000e+00
0.000000e+00 1.672807e+00 0.000000e+00
0.000000e+00 0.000000e+00 0.000000e+00
0.000000e+00 1.612742e+00 0.000000e+00
0.000000e+00 0.000000e+00 0.000000e+00
0.000000e+00 1.554846e+00 0.000000e+00
0.000000e+00 0.000000e+00 0.000000e+00
0.000000e+00 1.495044e+00 0.000000e+00
0.000000e+00 0.000000e+00 0.000000e+00
0.000000e+00 1.438135e+00 0.000000e+00
0.000000e+00 0.000000e+00 0.000000e+00
0.000000e+00 1.380204e+00 0.000000e+00
0.000000e+00 0.000000e+00 0.000000e+00
0.000000e+00 1.316622e+00 0.000000e+00
0.000000e+00 0.000000e+00 0.000000e+00
0.000000e+00 1.255653e+00 0.000000e+00
0.000000e+00 0.000000e+00 0.000000e+00
0.000000e+00 1.196506e+00 0.000000e+00
0.000000e+00 0.000000e+00 0.000000e+00
0.000000e+00 1.138356e+00 0.000000e+00
0.000000e+00 0.000000e+00 0.000000e+00
0.000000e+00 1.089583e+00 0.000000e+00
0.000000e+00 0.000000e+00 0.000000e+00
0.000000e+00 1.043658e+00 0.000000e+00
0.000000e+00 0.000000e+00 0.000000e+00
0.000000e+00 9.905380e-01 0.000000e+00
0.000000e+00 0.000000e+00 0.000000e+00
0.000000e+00 9.380364e-01 0.000000e+00
0.000000e+00 0.000000e+00 0.000000e+00
0.000000e+00 8.900025e-01 0.000000e+00
0.000000e+00 0.000000e+00 0.000000e+00
0.000000e+00 8.424378e-01 0.000000e+00
0.000000e+00 0.000000e+00 0.000000e+00
0.000000e+00 7.966344e-01 0.000000e+00
0.000000e+00 0.000000e+00 0.000000e+00
0.000000e+00 7.505840e-01 0.000000e+00
0.000000e+00 0.000000e+00 0.000000e+00
0.000000e+00 7.045376e-01 0.000000e+00
0.000000e+00 0.000000e+00 0.000000e+00
0.000000e+00 6.612478e-01 0.000000e+00
0.000000e+00 0.000000e+00 0.000000e+00
0.000000e+00 6.159688e-01 0.000000e+00
0.000000e+00 0.000000e+00 0.000000e+00
0.000000e+00 5.710684e-01 0.000000e+00
0.000000e+00 0.000000e+00 0.000000e+00
0.000000e+00 5.295912e-01 0.000000e+00
0.000000e+00 0.000000e+00 0.000000e+00
0.000000e+00 4.855098e-01 0.000000e+00
0.000000e+00 0.000000e+00 0.000000e+00
0.000000e+00 4.432345e-01 0.000000e+00
0.000000e+00 0.000000e+00 0.000000e+00
0.000000e+00 4.040443e-01 0.000000e+00
0.000000e+00 0.000000e+00 0.000000e+00
0.000000e+00 3.606123e-01 0.000000e+00
0.000000e+00 0.000000e+00 0.000000e+00
0.000000e+00 3.159314e-01 0.000000e+00
0.000000e+00 0.000000e+00 0.000000e+00
0.000000e+00 2.727353e-01 0.000000e+00
0.000000e+00 0.000000e+00 0.000000e+00
0.000000e+00 2.293332e-01 0.000000e+00
0.000000e+00 0.000000e+00 0.000000e+00
0.000000e+00 1.887525e-01 0.000000e+00
0.000000e+00 0.000000e+00 0.000000e+00
0.000000e+00 1.489189e-01 0.000000e+00
0.000000e+00 0.000000e+00 0.000000e+00
0.000000e+00 1.035542e-01 0.000000e+00
0.000000e+00 0.000000e+00 0.000000e+00
0.000000e+00 5.765303e-02 0.000000e+00
0.000000e+00 0.000000e+00 0.000000e+00
0.000000e+00 1.197551e-02 0.000000e+00
0.000000e+00 0.000000e+00 0.000000e+00
0.000000e+00 -3.683802e-02 0.000000e+00
0.000000e+00 0.000000e+00 0.000000e+00
0.000000e+00 -7.931283e-02 0.000000e+00
0.000000e+00 0.000000e+00 0.000000e+00
0.000000e+00 -1.181668e-01 0.000000e+00
0.000000e+00 0.000000e+00 0.000000e+00
0.000000e+00 -1.647897e-01 0.000000e+00
0.000000e+00 0.000000e+00 0.000000e+00
0.000000e+00 -2.125604e-01 0.000000e+00
0.000000e+00 0.000000e+00 0.000000e+00
0.000000e+00 -2.628675e-01 0.000000e+00
0.000000e+00 0.000000e+00 0.000000e+00
0.000000e+00 -3.202347e-01 0.000000e+00
0.000000e+00 0.000000e+00 0.000000e+00
0.000000e+00 -3.755633e-01 0.000000e+00
0.000000e+00 0.000000e+00 0.000000e+00
0.000000e+00 -4.350343e-01 0.000000e+00
0.000000e+00 0.000000e+00 0.000000e+00
0.000000e+00 -5.012099e-01 0.000000e+00
0.000000e+00 0.000000e+00 0.000000e+00
0.000000e+00 -5.601022e-01 0.000000e+00
0.000000e+00 0.000000e+00 0.000000e+00
0.000000e+00 -6.168795e-01 0.000000e+00
0.000000e+00 0.000000e+00 0.000000e+00
0.000000e+00 -6.831812e-01 0.000000e+00
0.000000e+00 0.000000e+00 0.000000e+00
0.000000e+00 -7.523096e-01 0.000000e+00
0.000000e+00 0.000000e+00 0.000000e+00
0.000000e+00 -8.275750e-01 0.000000e+00
0.000000e+00 0.000000e+00 0.000000e+00
0.000000e+00 -9.154472e-01 0.000000e+00
0.000000e+00 0.000000e+00 0.000000e+00
0.000000e+00 -1.005364e+00 0.000000e+00
0.000000e+00 0.000000e+00 0.000000e+00
0.000000e+00 -1.099567e+00 0.000000e+00
0.000000e+00 0.000000e+00 0.000000e+00
0.000000e+00 -1.206591e+00 0.000000e+00
0.000000e+00 0.000000e+00 0.000000e+00
0.000000e+00 -1.318121e+00 0.000000e+00
0.000000e+00 0.000000e+00 0.000000e+00
0.000000e+00 -1.432549e+00 0.000000e+00
0.000000e+00 0.000000e+00 0.000000e+00
0.000000e+00 -1.570584e+00 0.000000e+00
0.000000e+00 0.000000e+00 0.000000e+00
0.000000e+00 -1.735330e+00 0.000000e+00
0.000000e+00 0.000000e+00 0.000000e+00
0.000000e+00 -1.912917e+00 0.000000e+00
0.000000e+00 0.000000e+00 0.000000e+00
0.000000e+00 -2.126292e+00 0.000000e+00
0.000000e+00 0.000000e+00 0.000000e+00