<?xml version="1.0"?>
<VTKFile type="UnstructuredGrid" version="0.1">
<UnstructuredGrid>
<FieldData>
<DataArray Name="TIME" type="Float64" format="ascii" NumberOfTuples="1">
0.000000e+00
</DataArray>
</FieldData>
<FieldData>
<DataArray Name="CYCLE" type="Int32" format="ascii" NumberOfTuples="1">
0
</DataArray>
</FieldData>
<Piece NumberOfPoints="22365" NumberOfCells="632">
<Points>
<DataArray NumberOfComponents="3" type="Float64" format="ascii">
0.000000e+00 0.000000e+00 0.000000e+00
0.000000e+00 2.500000e-03 0.000000e+00
0.000000e+00 5.000000e-03 0.000000e+00
0.000000e+00 7.500000e-03 0.000000e+00
0.000000e+00 1.000000e-02 0.000000e+00
0.000000e+00 1.250000e-02 0.000000e+00
0.000000e+00 1.500000e-02 0.000000e+00
0.000000e+00 1.750000e-02 0.000000e+00
0.000000e+00 2.000000e-02 0.000000e+00
0.000000e+00 2.250000e-02 0.000000e+00
0.000000e+00 2.500000e-02 0.000000e+00
0.000000e+00 2.750000e-02 0.000000e+00
0.000000e+00 3.000000e-02 0.000000e+00
0.000000e+00 3.250000e-02 0.000000e+00
0.000000e+00 3.500000e-02 0.000000e+00
0.000000e+00 3.750000e-02 0.000000e+00
0.000000e+00 4.000000e-02 0.000000e+00
0.000000e+00 4.250000e-02 0.000000e+00
0.000000e+00 4.500000e-02 0.000000e+00
0.000000e+00 4.750000e-02 0.000000e+00
0.000000e+00 5.000000e-02 0.000000e+00
0.000000e+00 5.250000e-02 0.000000e+00
0.000000e+00 5.500000e-02 0.000000e+00
0.000000e+00 5.750000e-02 0.000000e+00
0.000000e+00 6.000000e-02 0.000000e+00
0.000000e+00 6.250000e-02 0.000000e+00
0.000000e+00 6.500000e-02 0.000000e+00
0.000000e+00 6.750000e-02 0.000000e+00
0.000000e+00 7.000000e-02 0.000000e+00
0.000000e+00 7.250000e-02 0.000000e+00
0.000000e+00 7.500000e-02 0.000000e+00
0.000000e+00 7.750000e-02 0.000000e+00
0.000000e+00 8.000000e-02 0.000000e+00
0.000000e+00 8.250000e-02 0.000000e+00
0.000000e+00 8.500000e-02 0.000000e+00
0.000000e+00 8.750000e-02 0.000000e+00
0.000000e+00 9.000000e-02 0.000000e+00
0.000000e+00 9.250000e-02 0.000000e+00
0.000000e+00 9.500000e-02 0.000000e+00
0.000000e+00 9.750000e-02 0.000000e+00
0.000000e+00 1.000000e-01 0.000000e+00
0.000000e+00 1.025000e-01 0.000000e+00
0.000000e+00 1.050000e-01 0.000000e+00
0.000000e+00 1.075000e-01 0.000000e+00
0.000000e+00 1.100000e-01 0.000000e+00
0.000000e+00 1.125000e-01 0.000000e+00
0.000000e+00 1.150000e-01 0.000000e+00
0.000000e+00 1.175000e-01 0.000000e+00
0.000000e+00 1.200000e-01 0.000000e+00
0.000000e+00 1.225000e-01 0.000000e+00
0.000000e+00 1.250000e-01 0.000000e+00
0.000000e+00 1.275000e-01 0.000000e+00
0.000000e+00 1.300000e-01 0.000000e+00
0.000000e+00 1.325000e-01 0.000000e+00
0.000000e+00 1.350000e-01 0.000000e+00
0.000000e+00 1.375000e-01 0.000000e+00
0.000000e+00 1.400000e-01 0.000000e+00
0.000000e+00 1.425000e-01 0.000000e+00
0.000000e+00 1.450000e-01 0.000000e+00
0.000000e+00 1.475000e-01 0.000000e+00
0.000000e+00 1.500000e-01 0.000000e+00
0.000000e+00 1.525000e-01 0.000000e+00
0.000000e+00 1.550000e-01 0.000000e+00
0.000000e+00 1.575000e-01 0.000000e+00
0.000000e+00 1.600000e-01 0.000000e+00
0.000000e+00 1.625000e-01 0.000000e+00
0.000000e+00 1.650000e-01 0.000000e+00
0.000000e+00 1.675000e-01 0.000000e+00
0.000000e+00 1.700000e-01 0.000000e+00
0.000000e+00 1.725000e-01 0.000000e+00
0.000000e+00 1.750000e-01 0.000000e+00
0.000000e+00 1.775000e-01 0.000000e+00
0.000000e+00 1.800000e-01 0.000000e+00
0.000000e+00 1.825000e-01 0.000000e+00
0.000000e+00 1.850000e-01 0.000000e+00
0.000000e+00 1.875000e-01 0.000000e+00
0.000000e+00 1.900000e-01 0.000000e+00
0.000000e+00 1.925000e-01 0.000000e+00
0.000000e+00 1.950000e-01 0.000000e+00
0.000000e+00 1.975000e-01 0.000000e+00
0.000000e+00 2.000000e-01 0.000000e+00
0.000000e+00 2.025000e-01 0.000000e+00
0.000000e+00 2.050000e-01 0.000000e+00
0.000000e+00 2.075000e-01 0.000000e+00
0.000000e+00 2.100000e-01 0.000000e+00
0.000000e+00 2.125000e-01 0.000000e+00
0.000000e+00 2.150000e-01 0.000000e+00
0.000000e+00 2.175000e-01 0.000000e+00
0.000000e+00 2.200000e-01 0.000000e+00
0.000000e+00 2.225000e-01 0.000000e+00
0.000000e+00 2.250000e-01 0.000000e+00
0.000000e+00 2.275000e-01 0.000000e+00
0.000000e+00 2.300000e-01 0.000000e+00
0.000000e+00 2.325000e-01 0.000000e+00
0.000000e+00 2.350000e-01 0.000000e+00
0.000000e+00 2.375000e-01 0.000000e+00
0.000000e+00 2.400000e-01 0.000000e+00
0.000000e+00 2.425000e-01 0.000000e+00
0.000000e+00 2.450000e-01 0.000000e+00
0.000000e+00 2.475000e-01 0.000000e+00
0.000000e+00 2.500000e-01 0.000000e+00
0.000000e+00 2.525000e-01 0.000000e+00
0.000000e+00 2.550000e-01 0.000000e+00
0.000000e+00 2.575000e-01 0.000000e+00
0.000000e+00 2.600000e-01 0.000000e+00
2.500000e-03 0.000000e+00 0.000000e+00
2.500000e-03 2.500000e-03 0.000000e+00
2.500000e-03 5.000000e-03 0.000000e+00
2.500000e-03 7.500000e-03 0.000000e+00
2.500000e-03 1.000000e-02 0.000000e+00
2.500000e-03 1.250000e-02 0.000000e+00
2.500000e-03 1.500000e-02 0.000000e+00
2.500000e-03 1.750000e-02 0.000000e+00
2.500000e-03 2.000000e-02 0.000000e+00
2.500000e-03 2.250000e-02 0.000000e+00
2.500000e-03 2.500000e-02 0.000000e+00
2.500000e-03 2.750000e-02 0.000000e+00
2.500000e-03 3.000000e-02 0.000000e+00
2.500000e-03 3.250000e-02 0.000000e+00
2.500000e-03 3.500000e-02 0.000000e+00
2.500000e-03 3.750000e-02 0.000000e+00
2.500000e-03 4.000000e-02 0.000000e+00
2.500000e-03 4.250000e-02 0.000000e+00
2.500000e-03 4.500000e-02 0.000000e+00
2.500000e-03 4.750000e-02 0.000000e+00
2.500000e-03 5.000000e-02 0.000000e+00
2.500000e-03 5.250000e-02 0.000000e+00
2.500000e-03 5.500000e-02 0.000000e+00
2.500000e-03 5.750000e-02 0.000000e+00
2.500000e-03 6.000000e-02 0.000000e+00
2.500000e-03 6.250000e-02 0.000000e+00
2.500000e-03 6.500000e-02 0.000000e+00
2.500000e-03 6.750000e-02 0.000000e+00
2.500000e-03 7.000000e-02 0.000000e+00
2.500000e-03 7.250000e-02 0.000000e+00
2.500000e-03 7.500000e-02 0.000000e+00
2.500000e-03 7.750000e-02 0.000000e+00
2.500000e-03 8.000000e-02 0.000000e+00
2.500000e-03 8.250000e-02 0.000000e+00
2.500000e-03 8.500000e-02 0.000000e+00
2.500000e-03 8.750000e-02 0.000000e+00
2.500000e-03 9.000000e-02 0.000000e+00
2.500000e-03 9.250000e-02 0.000000e+00
2.500000e-03 9.500000e-02 0.000000e+00
2.500000e-03 9.750000e-02 0.000000e+00
2.500000e-03 1.000000e-01 0.000000e+00
2.500000e-03 1.025000e-01 0.000000e+00
2.500000e-03 1.050000e-01 0.000000e+00
2.500000e-03 1.075000e-01 0.000000e+00
2.500000e-03 1.100000e-01 0.000000e+00
2.500000e-03 1.125000e-01 0.000000e+00
2.500000e-03 1.150000e-01 0.000000e+00
2.500000e-03 1.175000e-01 0.000000e+00
2.500000e-03 1.200000e-01 0.000000e+00
2.500000e-03 1.225000e-01 0.000000e+00
2.500000e-03 1.250000e-01 0.000000e+00
2.500000e-03 1.275000e-01 0.000000e+00
2.500000e-03 1.300000e-01 0.000000e+00
2.500000e-03 1.325000e-01 0.000000e+00
2.500000e-03 1.350000e-01 0.000000e+00
2.500000e-03 1.375000e-01 0.000000e+00
2.500000e-03 1.400000e-01 0.000000e+00
2.500000e-03 1.425000e-01 0.000000e+00
2.500000e-03 1.450000e-01 0.000000e+00
2.500000e-03 1.475000e-01 0.000000e+00
2.500000e-03 1.500000e-01 0.000000e+00
2.500000e-03 1.525000e-01 0.000000e+00
2.500000e-03 1.550000e-01 0.000000e+00
2.500000e-03 1.575000e-01 0.000000e+00
2.500000e-03 1.600000e-01 0.000000e+00
2.500000e-03 1.625000e-01 0.000000e+00
2.500000e-03 1.650000e-01 0.000000e+00
2.500000e-03 1.675000e-01 0.000000e+00
2.500000e-03 1.700000e-01 0.000000e+00
2.500000e-03 1.725000e-01 0.000000e+00
2.500000e-03 1.750000e-01 0.000000e+00
2.500000e-03 1.775000e-01 0.000000e+00
2.500000e-03 1.800000e-01 0.000000e+00
2.500000e-03 1.825000e-01 0.000000e+00
2.500000e-03 1.850000e-01 0.000000e+00
2.500000e-03 1.875000e-01 0.000000e+00
2.500000e-03 1.900000e-01 0.000000e+00
2.500000e-03 1.925000e-01 0.000000e+00
2.500000e-03 1.950000e-01 0.000000e+00
2.500000e-03 1.975000e-01 0.000000e+00
2.500000e-03 2.000000e-01 0.000000e+00
2.500000e-03 2.025000e-01 0.000000e+00
2.500000e-03 2.050000e-01 0.000000e+00
2.500000e-03 2.075000e-01 0.000000e+00
2.500000e-03 2.100000e-01 0.000000e+00
2.500000e-03 2.125000e-01 0.000000e+00
2.500000e-03 2.150000e-01 0.000000e+00
2.500000e-03 2.175000e-01 0.000000e+00
2.500000e-03 2.200000e-01 0.000000e+00
2.500000e-03 2.225000e-01 0.000000e+00
2.500000e-03 2.250000e-01 0.000000e+00
2.500000e-03 2.275000e-01 0.000000e+00
2.500000e-03 2.300000e-01 0.000000e+00
2.500000e-03 2.325000e-01 0.000000e+00
2.500000e-03 2.350000e-01 0.000000e+00
2.500000e-03 2.375000e-01 0.000000e+00
2.500000e-03 2.400000e-01 0.000000e+00
2.500000e-03 2.425000e-01 0.000000e+00
2.500000e-03 2.450000e-01 0.000000e+00
2.500000e-03 2.475000e-01 0.000000e+00
2.500000e-03 2.500000e-01 0.000000e+00
2.500000e-03 2.525000e-01 0.000000e+00
2.500000e-03 2.550000e-01 0.000000e+00
2.500000e-03 2.575000e-01 0.000000e+00
2.500000e-03 2.600000e-01 0.000000e+00
5.000000e-03 0.000000e+00 0.000000e+00
5.000000e-03 2.500000e-03 0.000000e+00
5.000000e-03 5.000000e-03 0.000000e+00
5.000000e-03 7.500000e-03 0.000000e+00
5.000000e-03 1.000000e-02 0.000000e+00
5.000000e-03 1.250000e-02 0.000000e+00
5.000000e-03 1.500000e-02 0.000000e+00
5.000000e-03 1.750000e-02 0.000000e+00
5.000000e-03 2.000000e-02 0.000000e+00
5.000000e-03 2.250000e-02 0.000000e+00
5.000000e-03 2.500000e-02 0.000000e+00
5.000000e-03 2.750000e-02 0.000000e+00
5.000000e-03 3.000000e-02 0.000000e+00
5.000000e-03 3.250000e-02 0.000000e+00
5.000000e-03 3.500000e-02 0.000000e+00
5.000000e-03 3.750000e-02 0.000000e+00
5.000000e-03 4.000000e-02 0.000000e+00
5.000000e-03 4.250000e-02 0.000000e+00
5.000000e-03 4.500000e-02 0.000000e+00
5.000000e-03 4.750000e-02 0.000000e+00
5.000000e-03 5.000000e-02 0.000000e+00
5.000000e-03 5.250000e-02 0.000000e+00
5.000000e-03 5.500000e-02 0.000000e+00
5.000000e-03 5.750000e-02 0.000000e+00
5.000000e-03 6.000000e-02 0.000000e+00
5.000000e-03 6.250000e-02 0.000000e+00
5.000000e-03 6.500000e-02 0.000000e+00
5.000000e-03 6.750000e-02 0.000000e+00
5.000000e-03 7.000000e-02 0.000000e+00
5.000000e-03 7.250000e-02 0.000000e+00
5.000000e-03 7.500000e-02 0.000000e+00
5.000000e-03 7.750000e-02 0.000000e+00
5.000000e-03 8.000000e-02 0.000000e+00
5.000000e-03 8.250000e-02 0.000000e+00
[...]
<CellData>
<DataArray Name="flux_surface_norm" type="Float64" NumberOfComponents="3" format="ascii">
0.000000e+00 0.000000e+00 0.000000e+00
0.000000e+00 0.000000e+00 0.000000e+00
0.000000e+00 0.000000e+00 0.000000e+00
0.000000e+00 0.000000e+00 0.000000e+00
0.000000e+00 0.000000e+00 0.000000e+00
0.000000e+00 0.000000e+00 0.000000e+00
0.000000e+00 0.000000e+00 0.000000e+00
0.000000e+00 0.000000e+00 0.000000e+00
0.000000e+00 0.000000e+00 0.000000e+00
0.000000e+00 0.000000e+00 0.000000e+00
0.000000e+00 0.000000e+00 0.000000e+00
0.000000e+00 0.000000e+00 0.000000e+00
0.000000e+00 0.000000e+00 0.000000e+00
0.000000e+00 0.000000e+00 0.000000e+00
0.000000e+00 0.000000e+00 0.000000e+00
0.000000e+00 0.000000e+00 0.000000e+00
0.000000e+00 0.000000e+00 0.000000e+00
0.000000e+00 0.000000e+00 0.000000e+00
0.000000e+00 0.000000e+00 0.000000e+00
0.000000e+00 0.000000e+00 0.000000e+00
0.000000e+00 0.000000e+00 0.000000e+00
0.000000e+00 0.000000e+00 0.000000e+00
0.000000e+00 0.000000e+00 0.000000e+00
0.000000e+00 0.000000e+00 0.000000e+00
0.000000e+00 0.000000e+00 0.000000e+00
0.000000e+00 0.000000e+00 0.000000e+00
0.000000e+00 0.000000e+00 0.000000e+00
0.000000e+00 0.000000e+00 0.000000e+00
0.000000e+00 0.000000e+00 0.000000e+00
0.000000e+00 0.000000e+00 0.000000e+00
0.000000e+00 0.000000e+00 0.000000e+00
0.000000e+00 0.000000e+00 0.000000e+00
0.000000e+00 0.000000e+00 0.000000e+00
0.000000e+00 0.000000e+00 0.000000e+00
0.000000e+00 0.000000e+00 0.000000e+00
0.000000e+00 0.000000e+00 0.000000e+00
0.000000e+00 0.000000e+00 0.000000e+00
0.000000e+00 0.000000e+00 0.000000e+00
0.000000e+00 0.000000e+00 0.000000e+00
0.000000e+00 0.000000e+00 0.000000e+00
0.000000e+00 0.000000e+00 0.000000e+00
0.000000e+00 0.000000e+00 0.000000e+00
0.000000e+00 0.000000e+00 0.000000e+00
0.000000e+00 0.000000e+00 0.000000e+00
0.000000e+00 0.000000e+00 0.000000e+00
0.000000e+00 0.000000e+00 0.000000e+00
0.000000e+00 0.000000e+00 0.000000e+00
0.000000e+00 0.000000e+00 0.000000e+00
0.000000e+00 0.000000e+00 0.000000e+00
0.000000e+00 0.000000e+00 0.000000e+00
0.000000e+00 0.000000e+00 0.000000e+00
0.000000e+00 0.000000e+00 0.000000e+00
0.000000e+00 0.000000e+00 0.000000e+00
0.000000e+00 0.000000e+00 0.000000e+00
0.000000e+00 0.000000e+00 0.000000e+00
0.000000e+00 0.000000e+00 0.000000e+00
0.000000e+00 0.000000e+00 0.000000e+00
0.000000e+00 0.000000e+00 0.000000e+00
0.000000e+00 0.000000e+00 0.000000e+00
0.000000e+00 0.000000e+00 0.000000e+00
0.000000e+00 0.000000e+00 0.000000e+00
0.000000e+00 0.000000e+00 0.000000e+00
0.000000e+00 0.000000e+00 0.000000e+00
0.000000e+00 0.000000e+00 0.000000e+00
0.000000e+00 0.000000e+00 0.000000e+00
0.000000e+00 0.000000e+00 0.000000e+00
0.000000e+00 0.000000e+00 0.000000e+00
0.000000e+00 0.000000e+00 0.000000e+00
0.000000e+00 0.000000e+00 0.000000e+00
0.000000e+00 0.000000e+00 0.000000e+00
0.000000e+00 0.000000e+00 0.000000e+00
0.000000e+00 0.000000e+00 0.000000e+00
0.000000e+00 0.000000e+00 0.000000e+00
0.000000e+00 0.000000e+00 0.000000e+00
0.000000e+00 0.000000e+00 0.000000e+00
0.000000e+00 0.000000e+00 0.000000e+00
0.000000e+00 0.000000e+00 0.000000e+00
0.000000e+00 0.000000e+00 0.000000e+00
0.000000e+00 0.000000e+00 0.000000e+00
0.000000e+00 0.000000e+00 0.000000e+00
0.000000e+00 0.000000e+00 0.000000e+00
0.000000e+00 0.000000e+00 0.000000e+00
0.000000e+00 0.000000e+00 0.000000e+00
0.000000e+00 0.000000e+00 0.000000e+00
0.000000e+00 0.000000e+00 0.000000e+00
0.000000e+00 0.000000e+00 0.000000e+00
0.000000e+00 0.000000e+00 0.000000e+00
0.000000e+00 0.000000e+00 0.000000e+00
0.000000e+00 0.000000e+00 0.000000e+00
0.000000e+00 0.000000e+00 0.000000e+00
0.000000e+00 0.000000e+00 0.000000e+00
0.000000e+00 0.000000e+00 0.000000e+00
0.000000e+00 0.000000e+00 0.000000e+00
0.000000e+00 0.000000e+00 0.000000e+00
0.000000e+00 0.000000e+00 0.000000e+00
0.000000e+00 0.000000e+00 0.000000e+00
0.000000e+00 0.000000e+00 0.000000e+00
0.000000e+00 0.000000e+00 0.000000e+00
0.000000e+00 0.000000e+00 0.000000e+00
0.000000e+00 0.000000e+00 0.000000e+00
0.000000e+00 0.000000e+00 0.000000e+00
0.000000e+00 0.000000e+00 0.000000e+00
0.000000e+00 0.000000e+00 0.000000e+00
0.000000e+00 0.000000e+00 0.000000e+00
1.674829e+03 0.000000e+00 0.000000e+00
0.000000e+00 1.042696e+03 0.000000e+00
0.000000e+00 0.000000e+00 0.000000e+00
0.000000e+00 -2.567713e+03 0.000000e+00
0.000000e+00 0.000000e+00 0.000000e+00
0.000000e+00 -2.202830e+02 0.000000e+00
0.000000e+00 0.000000e+00 0.000000e+00
0.000000e+00 4.698070e+01 0.000000e+00
0.000000e+00 0.000000e+00 0.000000e+00
0.000000e+00 1.587728e+02 0.000000e+00
0.000000e+00 0.000000e+00 0.000000e+00
0.000000e+00 1.844478e+02 0.000000e+00
0.000000e+00 0.000000e+00 0.000000e+00
0.000000e+00 1.844179e+02 0.000000e+00
0.000000e+00 0.000000e+00 0.000000e+00
0.000000e+00 1.750184e+02 0.000000e+00
0.000000e+00 0.000000e+00 0.000000e+00
0.000000e+00 1.627348e+02 0.000000e+00
0.000000e+00 0.000000e+00 0.000000e+00
0.000000e+00 1.501015e+02 0.000000e+00
0.000000e+00 0.000000e+00 0.000000e+00
0.000000e+00 1.380425e+02 0.000000e+00
0.000000e+00 0.000000e+00 0.000000e+00
0.000000e+00 1.269523e+02 0.000000e+00
0.000000e+00 0.000000e+00 0.000000e+00
0.000000e+00 1.169163e+02 0.000000e+00
0.000000e+00 0.000000e+00 0.000000e+00
0.000000e+00 1.078504e+02 0.000000e+00
0.000000e+00 0.000000e+00 0.000000e+00
0.000000e+00 9.969659e+01 0.000000e+00
0.000000e+00 0.000000e+00 0.000000e+00
0.000000e+00 9.239536e+01 0.000000e+00
0.000000e+00 0.000000e+00 0.000000e+00
0.000000e+00 8.584035e+01 0.000000e+00
0.000000e+00 0.000000e+00 0.000000e+00
0.000000e+00 7.989648e+01 0.000000e+00
0.000000e+00 0.000000e+00 0.000000e+00
0.000000e+00 7.454497e+01 0.000000e+00
0.000000e+00 0.000000e+00 0.000000e+00
0.000000e+00 6.971503e+01 0.000000e+00
0.000000e+00 0.000000e+00 0.000000e+00
0.000000e+00 6.532480e+01 0.000000e+00
0.000000e+00 0.000000e+00 0.000000e+00
0.000000e+00 6.132832e+01 0.000000e+00
0.000000e+00 0.000000e+00 0.000000e+00
0.000000e+00 5.769369e+01 0.000000e+00
0.000000e+00 0.000000e+00 0.000000e+00
0.000000e+00 5.436909e+01 0.000000e+00
0.000000e+00 0.000000e+00 0.000000e+00
0.000000e+00 5.132223e+01 0.000000e+00
0.000000e+00 0.000000e+00 0.000000e+00
0.000000e+00 4.853981e+01 0.000000e+00
0.000000e+00 0.000000e+00 0.000000e+00
0.000000e+00 4.597173e+01 0.000000e+00
0.000000e+00 0.000000e+00 0.000000e+00
0.000000e+00 4.360129e+01 0.000000e+00
0.000000e+00 0.000000e+00 0.000000e+00
0.000000e+00 4.140192e+01 0.000000e+00
0.000000e+00 0.000000e+00 0.000000e+00
0.000000e+00 3.938948e+01 0.000000e+00
0.000000e+00 0.000000e+00 0.000000e+00
0.000000e+00 3.751992e+01 0.000000e+00
0.000000e+00 0.000000e+00 0.000000e+00
0.000000e+00 3.576613e+01 0.000000e+00
0.000000e+00 0.000000e+00 0.000000e+00
0.000000e+00 3.416965e+01 0.000000e+00
0.000000e+00 0.000000e+00 0.000000e+00
0.000000e+00 3.266011e+01 0.000000e+00
0.000000e+00 0.000000e+00 0.000000e+00
0.000000e+00 3.123698e+01 0.000000e+00
0.000000e+00 0.000000e+00 0.000000e+00
0.000000e+00 2.994069e+01 0.000000e+00
0.000000e+00 0.000000e+00 0.000000e+00
0.000000e+00 2.871242e+01 0.000000e+00
0.000000e+00 0.000000e+00 0.000000e+00
0.000000e+00 2.753775e+01 0.000000e+00
0.000000e+00 0.000000e+00 0.000000e+00
0.000000e+00 2.646280e+01 0.000000e+00
0.000000e+00 0.000000e+00 0.000000e+00
0.000000e+00 2.544729e+01 0.000000e+00
0.000000e+00 0.000000e+00 0.000000e+00
0.000000e+00 2.447318e+01 0.000000e+00
0.000000e+00 0.000000e+00 0.000000e+00
0.000000e+00 2.359882e+01 0.000000e+00
0.000000e+00 0.000000e+00 0.000000e+00
0.000000e+00 2.275271e+01 0.000000e+00
0.000000e+00 0.000000e+00 0.000000e+00
0.000000e+00 2.192683e+01 0.000000e+00
0.000000e+00 0.000000e+00 0.000000e+00
0.000000e+00 2.119554e+01 0.000000e+00
0.000000e+00 0.000000e+00 0.000000e+00
0.000000e+00 2.046452e+01 0.000000e+00
0.000000e+00 0.000000e+00 0.000000e+00
0.000000e+00 1.976001e+01 0.000000e+00
0.000000e+00 0.000000e+00 0.000000e+00
0.000000e+00 1.915171e+01 0.000000e+00
0.000000e+00 0.000000e+00 0.000000e+00
0.000000e+00 1.852145e+01 0.000000e+00
0.000000e+00 0.000000e+00 0.000000e+00
0.000000e+00 1.792743e+01 0.000000e+00
0.000000e+00 0.000000e+00 0.000000e+00
0.000000e+00 1.741554e+01 0.000000e+00
0.000000e+00 0.000000e+00 0.000000e+00
0.000000e+00 1.686339e+01 0.000000e+00
0.000000e+00 0.000000e+00 0.000000e+00
0.000000e+00 1.634893e+01 0.000000e+00
0.000000e+00 0.000000e+00 0.000000e+00
0.000000e+00 1.590416e+01 0.000000e+00
0.000000e+00 0.000000e+00 0.000000e+00
0.000000e+00 1.542658e+01 0.000000e+00
0.000000e+00 0.000000e+00 0.000000e+00
0.000000e+00 1.498475e+01 0.000000e+00
0.000000e+00 0.000000e+00 0.000000e+00
0.000000e+00 1.459789e+01 0.000000e+00
0.000000e+00 0.000000e+00 0.000000e+00
0.000000e+00 1.418064e+01 0.000000e+00
0.000000e+00 0.000000e+00 0.000000e+00
0.000000e+00 1.378991e+01 0.000000e+00
0.000000e+00 0.000000e+00 0.000000e+00
0.000000e+00 1.344756e+01 0.000000e+00
0.000000e+00 0.000000e+00 0.000000e+00
0.000000e+00 1.308565e+01 0.000000e+00
0.000000e+00 0.000000e+00 0.000000e+00
0.000000e+00 1.274560e+01 0.000000e+00
0.000000e+00 0.000000e+00 0.000000e+00
0.000000e+00 1.244422e+01 0.000000e+00
0.000000e+00 0.000000e+00 0.000000e+00
0.000000e+00 1.212705e+01 0.000000e+00
0.000000e+00 0.000000e+00 0.000000e+00
0.000000e+00 1.182383e+01 0.000000e+00
0.000000e+00 0.000000e+00 0.000000e+00
0.000000e+00 1.155815e+01 0.000000e+00
0.000000e+00 0.000000e+00 0.000000e+00
0.000000e+00 1.128474e+01 0.000000e+00
0.000000e+00 0.000000e+00 0.000000e+00
0.000000e+00 1.101191e+01 0.000000e+00
0.000000e+00 0.000000e+00 0.000000e+00
0.000000e+00 1.077436e+01 0.000000e+00
0.000000e+00 0.000000e+00 0.000000e+00
0.000000e+00 1.053931e+01 0.000000e+00
0.000000e+00 0.000000e+00 0.000000e+00
0.000000e+00 1.029371e+01 0.000000e+00
0.000000e+00 0.000000e+00 0.000000e+00
0.000000e+00 1.007222e+01 0.000000e+00
0.000000e+00 0.000000e+00 0.000000e+00
0.000000e+00 9.866533e+00 0.000000e+00
0.000000e+00 0.000000e+00 0.000000e+00
0.000000e+00 9.649053e+00 0.000000e+00
0.000000e+00 0.000000e+00 0.000000e+00
0.000000e+00 9.431385e+00 0.000000e+00
0.000000e+00 0.000000e+00 0.000000e+00
0.000000e+00 9.238224e+00 0.000000e+00
0.000000e+00 0.000000e+00 0.000000e+00
0.000000e+00 9.058193e+00 0.000000e+00
0.000000e+00 0.000000e+00 0.000000e+00
0.000000e+00 8.866664e+00 0.000000e+00
0.000000e+00 0.000000e+00 0.000000e+00
0.000000e+00 8.680120e+00 0.000000e+00
0.000000e+00 0.000000e+00 0.000000e+00
0.000000e+00 8.517141e+00 0.000000e+00
0.000000e+00 0.000000e+00 0.000000e+00
0.000000e+00 8.355404e+00 0.000000e+00
0.000000e+00 0.000000e+00 0.000000e+00
0.000000e+00 8.182800e+00 0.000000e+00
0.000000e+00 0.000000e+00 0.000000e+00
0.000000e+00 8.021576e+00 0.000000e+00
0.000000e+00 0.000000e+00 0.000000e+00
0.000000e+00 7.876977e+00 0.000000e+00
0.000000e+00 0.000000e+00 0.000000e+00
0.000000e+00 7.732205e+00 0.000000e+00
0.000000e+00 0.000000e+00 0.000000e+00
0.000000e+00 7.587100e+00 0.000000e+00
0.000000e+00 0.000000e+00 0.000000e+00
0.000000e+00 7.445920e+00 0.000000e+00
0.000000e+00 0.000000e+00 0.000000e+00
0.000000e+00 7.311037e+00 0.000000e+00
0.000000e+00 0.000000e+00 0.000000e+00
0.000000e+00 7.187187e+00 0.000000e+00
0.000000e+00 0.000000e+00 0.000000e+00
0.000000e+00 7.060756e+00 0.000000e+00
0.000000e+00 0.000000e+00 0.000000e+00
0.000000e+00 6.926362e+00 0.000000e+00
0.000000e+00 0.000000e+00 0.000000e+00
0.000000e+00 6.804260e+00 0.000000e+00
0.000000e+00 0.000000e+00 0.000000e+00
0.000000e+00 6.695913e+00 0.000000e+00
0.000000e+00 0.000000e+00 0.000000e+00
0.000000e+00 6.586757e+00 0.000000e+00
0.000000e+00 0.000000e+00 0.000000e+00
0.000000e+00 6.476913e+00 0.000000e+00
0.000000e+00 0.000000e+00 0.000000e+00
0.000000e+00 6.363621e+00 0.000000e+00
0.000000e+00 0.000000e+00 0.000000e+00
0.000000e+00 6.243757e+00 0.000000e+00
0.000000e+00 0.000000e+00 0.000000e+00
0.000000e+00 6.134717e+00 0.000000e+00
0.000000e+00 0.000000e+00 0.000000e+00
0.000000e+00 6.037391e+00 0.000000e+00
0.000000e+00 0.000000e+00 0.000000e+00
0.000000e+00 5.935448e+00 0.000000e+00
0.000000e+00 0.000000e+00 0.000000e+00
0.000000e+00 5.838978e+00 0.000000e+00
0.000000e+00 0.000000e+00 0.000000e+00
0.000000e+00 5.747888e+00 0.000000e+00
0.000000e+00 0.000000e+00 0.000000e+00
0.000000e+00 5.648803e+00 0.000000e+00
0.000000e+00 0.000000e+00 0.000000e+00
0.000000e+00 5.557910e+00 0.000000e+00
0.000000e+00 0.000000e+00 0.000000e+00
0.000000e+00 5.471994e+00 0.000000e+00
0.000000e+00 0.000000e+00 0.000000e+00
0.000000e+00 5.378112e+00 0.000000e+00
0.000000e+00 0.000000e+00 0.000000e+00
0.000000e+00 5.294057e+00 0.000000e+00
0.000000e+00 0.000000e+00 0.000000e+00
0.000000e+00 5.209890e+00 0.000000e+00
0.000000e+00 0.000000e+00 0.000000e+00
0.000000e+00 5.118312e+00 0.000000e+00
0.000000e+00 0.000000e+00 0.000000e+00
0.000000e+00 5.042142e+00 0.000000e+00
0.000000e+00 0.000000e+00 0.000000e+00
0.000000e+00 4.966719e+00 0.000000e+00
0.000000e+00 0.000000e+00 0.000000e+00
0.000000e+00 4.881999e+00 0.000000e+00
0.000000e+00 0.000000e+00 0.000000e+00
0.000000e+00 4.805899e+00 0.000000e+00
0.000000e+00 0.000000e+00 0.000000e+00
0.000000e+00 4.727550e+00 0.000000e+00
0.000000e+00 0.000000e+00 0.000000e+00
0.000000e+00 4.645341e+00 0.000000e+00
0.000000e+00 0.000000e+00 0.000000e+00
0.000000e+00 4.573734e+00 0.000000e+00
0.000000e+00 0.000000e+00 0.000000e+00
0.000000e+00 4.501862e+00 0.000000e+00
0.000000e+00 0.000000e+00 0.000000e+00
0.000000e+00 4.430552e+00 0.000000e+00
0.000000e+00 0.000000e+00 0.000000e+00
0.000000e+00 4.365548e+00 0.000000e+00
0.000000e+00 0.000000e+00 0.000000e+00
0.000000e+00 4.290811e+00 0.000000e+00
0.000000e+00 0.000000e+00 0.000000e+00
0.000000e+00 4.213610e+00 0.000000e+00
0.000000e+00 0.000000e+00 0.000000e+00
0.000000e+00 4.146426e+00 0.000000e+00
0.000000e+00 0.000000e+00 0.000000e+00
0.000000e+00 4.074896e+00 0.000000e+00
0.000000e+00 0.000000e+00 0.000000e+00
0.000000e+00 4.004719e+00 0.000000e+00
0.000000e+00 0.000000e+00 0.000000e+00
0.000000e+00 3.944248e+00 0.000000e+00
0.000000e+00 0.000000e+00 0.000000e+00
0.000000e+00 3.876461e+00 0.000000e+00
0.000000e+00 0.000000e+00 0.000000e+00
0.000000e+00 3.806937e+00 0.000000e+00
0.000000e+00 0.000000e+00 0.000000e+00
0.000000e+00 3.746044e+00 0.000000e+00
0.000000e+00 0.000000e+00 0.000000e+00
0.000000e+00 3.679571e+00 0.000000e+00
0.000000e+00 0.000000e+00 0.000000e+00
0.000000e+00 3.614251e+00 0.000000e+00
0.000000e+00 0.000000e+00 0.000000e+00
0.000000e+00 3.557355e+00 0.000000e+00
0.000000e+00 0.000000e+00 0.000000e+00
0.000000e+00 3.493303e+00 0.000000e+00
0.000000e+00 0.000000e+00 0.000000e+00
0.000000e+00 3.428849e+00 0.000000e+00
0.000000e+00 0.000000e+00 0.000000e+00
0.000000e+00 3.371872e+00 0.000000e+00
0.000000e+00 0.000000e+00 0.000000e+00
0.000000e+00 3.309103e+00 0.000000e+00
0.000000e+00 0.000000e+00 0.000000e+00
0.000000e+00 3.245232e+00 0.000000e+00
0.000000e+00 0.000000e+00 0.000000e+00
0.000000e+00 3.189471e+00 0.000000e+00
0.000000e+00 0.000000e+00 0.000000e+00
0.000000e+00 3.131609e+00 0.000000e+00
0.000000e+00 0.000000e+00 0.000000e+00
0.000000e+00 3.074958e+00 0.000000e+00
0.000000e+00 0.000000e+00 0.000000e+00
0.000000e+00 3.023872e+00 0.000000e+00
0.000000e+00 0.000000e+00 0.000000e+00
0.000000e+00 2.962917e+00 0.000000e+00
0.000000e+00 0.000000e+00 0.000000e+00
0.000000e+00 2.897840e+00 0.000000e+00
0.000000e+00 0.000000e+00 0.000000e+00
0.000000e+00 2.840582e+00 0.000000e+00
0.000000e+00 0.000000e+00 0.000000e+00
0.000000e+00 2.779831e+00 0.000000e+00
0.000000e+00 0.000000e+00 0.000000e+00
0.000000e+00 2.717835e+00 0.000000e+00
0.000000e+00 0.000000e+00 0.000000e+00
0.000000e+00 2.661872e+00 0.000000e+00
0.000000e+00 0.000000e+00 0.000000e+00
0.000000e+00 2.605347e+00 0.000000e+00
0.000000e+00 0.000000e+00 0.000000e+00
0.000000e+00 2.546870e+00 0.000000e+00
0.000000e+00 0.000000e+00 0.000000e+00
0.000000e+00 2.490203e+00 0.000000e+00
0.000000e+00 0.000000e+00 0.000000e+00
0.000000e+00 2.434464e+00 0.000000e+00
0.000000e+00 0.000000e+00 0.000000e+00
0.000000e+00 2.378001e+00 0.000000e+00
0.000000e+00 0.000000e+00 0.000000e+00
0.000000e+00 2.321396e+00 0.000000e+00
0.000000e+00 0.000000e+00 0.000000e+00
0.000000e+00 2.264359e+00 0.000000e+00
0.000000e+00 0.000000e+00 0.000000e+00
0.000000e+00 2.211037e+00 0.000000e+00
0.000000e+00 0.000000e+00 0.000000e+00
0.000000e+00 2.159136e+00 0.000000e+00
0.000000e+00 0.000000e+00 0.000000e+00
0.000000e+00 2.104120e+00 0.000000e+00
0.000000e+00 0.000000e+00 0.000000e+00
0.000000e+00 2.050145e+00 0.000000e+00
0.000000e+00 0.000000e+00 0.000000e+00
0.000000e+00 1.995008e+00 0.000000e+00
0.000000e+00 0.000000e+00 0.000000e+00
0.000000e+00 1.940157e+00 0.000000e+00
0.000000e+00 0.000000e+00 0.000000e+00
0.000000e+00 1.890022e+00 0.000000e+00
0.000000e+00 0.000000e+00 0.000000e+00
0.000000e+00 1.838766e+00 0.000000e+00
0.000000e+00 0.000000e+00 0.000000e+00
0.000000e+00 1.783228e+00 0.000000e+00
0.000000e+00 0.000000e+00 0.000000e+00
0.000000e+00 1.726609e+00 0.000000e+00
0.000000e+00 0.000000e+00 0.000000e+00
0.000000e+00 1.667805e+00 0.000000e+00
0.000000e+00 0.000000e+00 0.000000e+00
0.000000e+00 1.608711e+00 0.000000e+00
0.000000e+00 0.000000e+00 0.000000e+00
0.000000e+00 1.555262e+00 0.000000e+00
0.000000e+00 0.000000e+00 0.000000e+00
0.000000e+00 1.502659e+00 0.000000e+00
0.000000e+00 0.000000e+00 0.000000e+00
0.000000e+00 1.448313e+00 0.000000e+00
0.000000e+00 0.000000e+00 0.000000e+00
0.000000e+00 1.394043e+00 0.000000e+00
0.000000e+00 0.000000e+00 0.000000e+00
0.000000e+00 1.339015e+00 0.000000e+00
0.000000e+00 0.000000e+00 0.000000e+00
0.000000e+00 1.283076e+00 0.000000e+00
0.000000e+00 0.000000e+00 0.000000e+00
0.000000e+00 1.221546e+00 0.000000e+00
0.000000e+00 0.000000e+00 0.000000e+00
0.000000e+00 1.156814e+00 0.000000e+00
0.000000e+00 0.000000e+00 0.000000e+00
0.000000e+00 1.098422e+00 0.000000e+00
0.000000e+00 0.000000e+00 0.000000e+00
0.000000e+00 1.043329e+00 0.000000e+00
0.000000e+00 0.000000e+00 0.000000e+00
0.000000e+00 9.835672e-01 0.000000e+00
0.000000e+00 0.000000e+00 0.000000e+00
0.000000e+00 9.228351e-01 0.000000e+00
0.000000e+00 0.000000e+00 0.000000e+00
0.000000e+00 8.589120e-01 0.000000e+00
0.000000e+00 0.000000e+00 0.000000e+00
0.000000e+00 7.922806e-01 0.000000e+00
0.000000e+00 0.000000e+00 0.000000e+00
0.000000e+00 7.288041e-01 0.000000e+00
0.000000e+00 0.000000e+00 0.000000e+00
0.000000e+00 6.565388e-01 0.000000e+00
0.000000e+00 0.000000e+00 0.000000e+00
0.000000e+00 5.757141e-01 0.000000e+00
0.000000e+00 0.000000e+00 0.000000e+00
0.000000e+00 5.023655e-01 0.000000e+00
0.000000e+00 0.000000e+00 0.000000e+00
0.000000e+00 4.301217e-01 0.000000e+00
0.000000e+00 0.000000e+00 0.000000e+00
0.000000e+00 3.540781e-01 0.000000e+00
0.000000e+00 0.000000e+00 0.000000e+00
0.000000e+00 2.799322e-01 0.000000e+00
0.000000e+00 0.000000e+00 0.000000e+00
0.000000e+00 1.940665e-01 0.000000e+00
0.000000e+00 0.000000e+00 0.000000e+00
0.000000e+00 1.005586e-01 0.000000e+00
0.000000e+00 0.000000e+00 0.000000e+00
0.000000e+00 1.035122e-02 0.000000e+00
0.000000e+00 0.000000e+00 0.000000e+00
0.000000e+00 -8.847222e-02 0.000000e+00
0.000000e+00 0.000000e+00 0.000000e+00
0.000000e+00 -1.882898e-01 0.000000e+00
0.000000e+00 0.000000e+00 0.000000e+00
0.000000e+00 -2.846050e-01 0.000000e+00
0.000000e+00 0.000000e+00 0.000000e+00
0.000000e+00 -3.961658e-01 0.000000e+00
0.000000e+00 0.000000e+00 0.000000e+00
0.000000e+00 -5.136998e-01 0.000000e+00
0.000000e+00 0.000000e+00 0.000000e+00
0.000000e+00 -6.322079e-01 0.000000e+00
0.000000e+00 0.000000e+00 0.000000e+00
0.000000e+00 -7.648149e-01 0.000000e+00
0.000000e+00 0.000000e+00 0.000000e+00
0.000000e+00 -8.949250e-01 0.000000e+00
0.000000e+00 0.000000e+00 0.000000e+00
0.000000e+00 -1.034698e+00 0.000000e+00
0.000000e+00 0.000000e+00 0.000000e+00
0.000000e+00 -1.211594e+00 0.000000e+00
0.000000e+00 0.000000e+00 0.000000e+00
0.000000e+00 -1.396364e+00 0.000000e+00
0.000000e+00 0.000000e+00 0.000000e+00
0.000000e+00 -1.593178e+00 0.000000e+00
0.000000e+00 0.000000e+00 0.000000e+00
0.000000e+00 -1.845566e+00 0.000000e+00
0.000000e+00 0.000000e+00 0.000000e+00